54
LAgCl, L1, Energy    = -3662.804781577493 
Ag	  -0.096369748728	   0.002431300652	  -2.663113630769
Cl	  -0.148151034165	   0.005335699049	  -4.955968945468
P 	  -0.041641429297	  -0.000398548568	  -0.300588298919
C 	   1.556251527308	  -0.519440624440	   0.424442707421
C 	   1.638493441652	  -1.286147421096	   1.584850431878
C 	   2.731650390433	  -0.095678669192	  -0.210759769676
C 	   2.887316678053	  -1.615137099882	   2.117220425339
H 	   0.733636823370	  -1.636547327496	   2.086407101193
C 	   3.968829103162	  -0.424556165844	   0.327482785425
H 	   2.683978506757	   0.491771193546	  -1.131094855779
C 	   4.052395342867	  -1.186106461260	   1.495884744390
C 	   2.934871696038	  -2.416946904727	   3.398042188221
C 	   5.250402694125	   0.010208590278	  -0.348719274549
H 	   5.025043518968	  -1.446851838419	   1.915786867917
F 	   2.164545989767	  -3.503408385938	   3.309380682283
F 	   4.171283862286	  -2.811637813210	   3.692871390627
F 	   2.480769965703	  -1.692960766780	   4.424694724679
F 	   6.050857303658	   0.639519818557	   0.514424332833
F 	   5.920724040872	  -1.043522041628	  -0.816852564403
F 	   5.017319932421	   0.834078159727	  -1.367985117421
C 	  -0.363243221098	   1.626678700197	   0.472236889268
C 	  -1.335191588475	   2.449902279143	  -0.113113886089
C 	   0.298829750875	   2.052879337142	   1.621458991696
C 	  -1.646142520703	   3.674218923280	   0.463457797961
H 	  -1.850024439296	   2.137920693336	  -1.025175579953
C 	  -0.017509710345	   3.288051355077	   2.192249800504
H 	   1.068265098243	   1.430641916742	   2.084032972113
C 	  -0.987737671462	   4.099572061346	   1.620237000978
C 	  -2.693058698727	   4.579005168827	  -0.148114842968
C 	   0.700142952005	   3.699854720745	   3.457567890622
H 	  -1.228575204989	   5.064679219127	   2.068529510942
F 	  -3.668839284452	   4.830414662321	   0.727622190730
F 	  -2.161638244065	   5.751171308692	  -0.498028830237
F 	  -3.244696930849	   4.037508290101	  -1.231633845628
F 	   2.022804812961	   3.596756815542	   3.310548868931
F 	   0.420830168679	   4.954361545481	   3.803254647121
F 	   0.352595465788	   2.907650789016	   4.475414005401
C 	  -1.262272758886	  -1.110104394161	   0.490922065229
C 	  -1.514946569025	  -2.346873897348	  -0.118281111269
C 	  -1.916402595836	  -0.779709230995	   1.675965333422
C 	  -2.399177603158	  -3.242219905763	   0.469153628065
H 	  -1.023003780902	  -2.613476657238	  -1.057009407018
C 	  -2.806534658443	  -1.685146953015	   2.257993122401
H 	  -1.742873938457	   0.184712300441	   2.158505016527
C 	  -3.049447246977	  -2.915230589360	   1.661702993715
C 	  -2.694897511531	  -4.578726985221	  -0.175125117981
C 	  -3.466407302300	  -1.307746862898	   3.564826715777
H 	  -3.747529322502	  -3.617527621575	   2.119844410662
F 	  -2.482723122155	  -5.575982156642	   0.686511037687
F 	  -3.970601751842	  -4.648893989941	  -0.557924993232
F 	  -1.932684355179	  -4.792173930135	  -1.245285311673
F 	  -3.998930759485	  -0.085765889890	   3.495412014690
F 	  -4.432683382218	  -2.159984130695	   3.898761450985
F 	  -2.572495830389	  -1.293862554909	   4.557320915368
36
LAgCl, L2, Energy    = -3129.484599186024 
Ag	   0.448035450568	  -0.078716863705	  -2.477072801089
Cl	   0.886612690239	   0.031306545489	  -4.729266204933
P 	   0.142040994870	  -0.099211342286	  -0.120245431771
C 	  -0.819714359272	  -1.456792412206	   0.628619729756
C 	  -1.085160613422	  -1.493409621373	   2.001741733357
C 	  -1.379883622387	  -2.457337876788	  -0.170300425999
C 	  -1.877705801313	  -2.480059556966	   2.570194832946
F 	  -0.554111765432	  -0.579215163921	   2.798453465258
C 	  -2.181117778775	  -3.458249226695	   0.379214315382
F 	  -1.173538172674	  -2.489875181221	  -1.472505449411
C 	  -2.428627520504	  -3.466215721992	   1.749110857064
F 	  -2.107969716103	  -2.497867231541	   3.867929844675
F 	  -2.702530243781	  -4.391563901673	  -0.389654125249
F 	  -3.180338517826	  -4.406065901286	   2.274194544577
C 	   1.778882254289	  -0.077264079183	   0.697589394036
C 	   2.341295828539	  -1.122749459934	   1.431356601715
C 	   2.591287263663	   1.030249628556	   0.434063952770
C 	   3.646557087808	  -1.049944780520	   1.915430196019
F 	   1.664037939996	  -2.231038914228	   1.691594372490
C 	   3.892678503348	   1.127950899040	   0.906339964899
F 	   2.098989989449	   2.036929549227	  -0.275050581243
C 	   4.423458329064	   0.074380018571	   1.650454537865
F 	   4.149280499488	  -2.049338948194	   2.612822820056
F 	   4.622203390437	   2.194666524024	   0.654258946978
F 	   5.654592728780	   0.144968393394	   2.104208066030
C 	  -0.779390840798	   1.359850932159	   0.508817870362
C 	  -0.420106299428	   2.199114433887	   1.566462797298
C 	  -1.972791926457	   1.648949454604	  -0.163091294211
C 	  -1.193951910362	   3.305447499482	   1.910083073784
F 	   0.669190841128	   1.982288553936	   2.282993643043
C 	  -2.765138933932	   2.742561912325	   0.166744578312
F 	  -2.379370740671	   0.857110635931	  -1.145215334946
C 	  -2.370404368018	   3.573509629433	   1.213903317667
F 	  -0.827503095533	   4.086721005997	   2.906622950557
F 	  -3.882364510868	   2.984951935820	  -0.487101710633
F 	  -3.108416324154	   4.608625791857	   1.545474182634
15
LAgCl, L3, Energy    = -5202.966546945881 
Ag	   0.018716725452	  -0.033660792506	  -2.446304375844
Cl	   0.035981822230	  -0.059797510677	  -4.741548563148
P 	   0.001225851824	  -0.004301011251	  -0.088780512695
C 	   0.200608365003	  -1.764275533843	   0.673545266328
Cl	   1.377480684084	  -2.620173323232	  -0.360284686308
Cl	   0.750710844005	  -1.789127470414	   2.355709216436
Cl	  -1.355704526121	  -2.612351584477	   0.534685551205
C 	   1.426225672459	   1.067597584656	   0.645229641963
Cl	   1.171949176202	   1.601627401206	   2.313464853221
Cl	   2.938505803350	   0.139746421024	   0.532091437144
Cl	   1.580129446830	   2.486190324854	  -0.427197574146
C 	  -1.639467750725	   0.712945961789	   0.626953854594
Cl	  -1.975342394869	   0.270432674856	   2.307620782403
Cl	  -1.593041567974	   2.482860233580	   0.466720247011
Cl	  -2.944991251750	   0.107900884443	  -0.429701328145
15
LAgCl, L4, Energy    = -1960.204581642852 
Ag	  -0.332017541522	   0.002865166223	  -2.539319813119
Cl	  -0.618456131890	   0.010926688154	  -4.807775529831
P 	  -0.041234921366	  -0.001125873631	  -0.226828532255
C 	   1.503885880104	   0.877481642789	   0.443074322928
F 	   1.646196204763	   2.030594930925	  -0.190694317519
F 	   1.443914554064	   1.110499873588	   1.743190255764
F 	   2.555898054503	   0.109259300929	   0.190254944208
C 	  -1.408267480935	   0.815240894821	   0.808598271111
F 	  -1.330587460335	   0.517524227871	   2.094483292924
F 	  -1.304467627682	   2.130076924789	   0.662827415498
F 	  -2.584530582715	   0.418971572257	   0.349354893645
C 	   0.100840379165	  -1.695756611208	   0.619348136143
F 	  -1.106489246299	  -2.245890976219	   0.642988146008
F 	   0.912525813688	  -2.460669166299	  -0.093099981459
F 	   0.563012126454	  -1.619597804985	   1.855817725952
45
LAgCl, L5, Energy    = -1535.69688629211 
Ag	  -0.666737340886	   0.668979609275	  -1.574870624620
Cl	  -1.247722200171	   1.004819886988	  -3.783726449102
P 	  -0.123067449233	   0.298602361761	   0.690717954548
C 	  -1.073037301914	   1.380972692347	   1.842610728734
C 	  -0.624916562090	   2.859063925261	   1.746556327658
C 	  -2.601556479862	   1.391384908027	   1.538398228992
H 	  -0.894932946991	   1.007853187705	   2.864167388687
C 	  -1.904133358189	   3.661263664142	   1.987438904915
H 	  -0.254692034570	   3.080428478824	   0.729373901448
H 	   0.186544097090	   3.098565083833	   2.449280537556
C 	  -2.951268605043	   2.854122057861	   1.222449736069
H 	  -3.156252046693	   1.037821550003	   2.420682174821
H 	  -2.876790488821	   0.729185917404	   0.704432998079
H 	  -2.145098971047	   3.677505606044	   3.064013670015
H 	  -1.822626389517	   4.704777720986	   1.650670210475
H 	  -3.986851140236	   3.108678146775	   1.489051436322
H 	  -2.837649480269	   3.037549193668	   0.141259803510
C 	  -0.467438373160	  -1.420094547084	   1.261006503186
C 	  -1.906556646494	  -1.898243703022	   0.987181750753
C 	   0.384780299663	  -2.497755718469	   0.576576869655
H 	  -0.278019323581	  -1.453050898855	   2.348215055205
C 	  -1.830245079898	  -3.443967040446	   0.984041660201
H 	  -2.230894706744	  -1.535034693247	  -0.002341989175
H 	  -2.623933188060	  -1.508936256067	   1.722726965384
C 	  -0.327723540003	  -3.798695023908	   0.959308343583
H 	   1.440304564065	  -2.480548012518	   0.884841001615
H 	   0.354049677644	  -2.349837201613	  -0.517464143517
H 	  -2.324008790487	  -3.872391860281	   1.868064608008
H 	  -2.352546795480	  -3.850420615999	   0.106337182691
H 	   0.006394054325	  -4.114300714113	   1.960385069181
H 	  -0.093310849582	  -4.622063620842	   0.269968332689
C 	   1.642597386354	   0.637863219219	   1.102356008725
C 	   2.137923851789	   0.223127536170	   2.499574233330
C 	   2.663935653041	   0.034800785659	   0.093832288554
H 	   1.712631627798	   1.734837496982	   1.031852273935
C 	   3.655215965357	   0.148537763754	   2.319592122126
H 	   1.757723481504	  -0.774478953080	   2.774850977383
H 	   1.818940020834	   0.923515260894	   3.285903574446
C 	   3.807091211502	  -0.535620604121	   0.957515884181
H 	   3.023328416741	   0.823703016319	  -0.582527507596
H 	   2.221206419977	  -0.735100112088	  -0.553728772864
H 	   4.076651867668	   1.167246357224	   2.283812341094
H 	   4.162033926438	  -0.387783226004	   3.135167476865
H 	   4.796389595512	  -0.380798423015	   0.504397916297
H 	   3.680490691829	  -1.623896732231	   1.081162776032
54
LAgCl, L6, Energy    = -1653.555871620689 
Ag	   0.377394694093	   0.738021991151	  -1.930100485509
Cl	   0.531888224764	   1.351326963274	  -4.152104243297
P 	   0.218850406185	   0.177581899348	   0.368843822196
C 	  -0.747899914266	  -1.373212049980	   0.736533623478
C 	  -1.704328816230	  -1.731869703120	  -0.413503017813
C 	  -1.481221058558	  -1.397812855462	   2.086772214023
H 	   0.030897039084	  -2.157501068866	   0.765405892358
C 	  -2.401186761910	  -3.070227411593	  -0.166293221950
H 	  -2.460579574726	  -0.934717496467	  -0.525351334697
H 	  -1.152393216477	  -1.763172690096	  -1.366086063046
C 	  -2.159816409699	  -2.749059526671	   2.322158873936
H 	  -0.791408430428	  -1.172924164916	   2.913420681472
H 	  -2.252565697349	  -0.609571957243	   2.100660705568
C 	  -3.116851057311	  -3.098777312154	   1.183483726908
H 	  -3.108527705398	  -3.277033253186	  -0.984008451665
H 	  -1.647239723124	  -3.877080349771	  -0.194449181765
H 	  -2.693954669386	  -2.733260032113	   3.285045619465
H 	  -1.386875567239	  -3.533863932673	   2.405538681856
H 	  -3.946441223586	  -2.369418397828	   1.171402535361
H 	  -3.572215326216	  -4.086418981859	   1.355253952221
C 	   1.890290596496	  -0.082799817002	   1.125187602401
C 	   2.698254792885	  -1.128312299530	   0.339918141376
C 	   1.904812705434	  -0.392844665440	   2.626503875599
H 	   2.390241204119	   0.889658268933	   0.966116650708
C 	   4.127311512485	  -1.236163594509	   0.875530972508
H 	   2.208259478708	  -2.115268883775	   0.421678112477
H 	   2.711056876976	  -0.872665720733	  -0.731776171860
C 	   3.338007333543	  -0.490715275506	   3.154746429411
H 	   1.344397864294	   0.370627339251	   3.189638936080
H 	   1.395414900292	  -1.356287365679	   2.802741996219
C 	   4.149179522201	  -1.526233570045	   2.376209885701
H 	   4.673485850999	  -2.016598626680	   0.323772440402
H 	   4.655943218600	  -0.286976502699	   0.678810040339
H 	   3.325322836707	  -0.737565574249	   4.227837365361
H 	   3.823494212449	   0.497311900683	   3.065973619838
H 	   3.724078773602	  -2.529548374715	   2.558569228513
H 	   5.186183750822	  -1.555685680846	   2.744972571310
C 	  -0.570407248464	   1.551265080266	   1.330131419984
C 	  -1.937412358614	   1.902573870466	   0.718201527894
C 	   0.336122060105	   2.791470105318	   1.371103862129
H 	  -0.726722439666	   1.201050211099	   2.364980472218
C 	  -2.604934544316	   3.064680895838	   1.453691450684
H 	  -1.793614963690	   2.176140548998	  -0.342689395371
H 	  -2.601969214341	   1.024838617052	   0.720586791840
C 	  -0.339901907825	   3.959806791061	   2.091873859142
H 	   1.288822840728	   2.558532536817	   1.871240353523
H 	   0.586284970820	   3.090073219130	   0.336430453807
C 	  -1.700035410958	   4.294944158188	   1.482655940236
H 	  -3.566118993660	   3.303157807420	   0.972854483549
H 	  -2.838838795303	   2.755820898608	   2.488294311255
H 	   0.321428199887	   4.839705309284	   2.067678024479
H 	  -0.472761151567	   3.697204932765	   3.156674946868
H 	  -1.556319371212	   4.663000126503	   0.451679204308
H 	  -2.179303054811	   5.112034573949	   2.043829108024
24
LAgCl, L7, Energy    = -1185.845007063316 
Ag	   0.096933727160	  -0.039632462746	  -1.647831773242
Cl	   0.234415334869	  -0.037068824885	  -3.948945697443
P 	  -0.043626634327	  -0.042498676109	   0.710171758564
C 	  -1.713716979865	   0.345596277718	   1.380458094042
H 	  -2.353848711313	  -0.515604053996	   1.131480641789
H 	  -1.644301650124	   0.387513949838	   2.480502493125
C 	  -2.318662345883	   1.626908346570	   0.812344702610
H 	  -3.327404287402	   1.789319909730	   1.218341644305
H 	  -1.716337478947	   2.512866446290	   1.063521214838
H 	  -2.399672154527	   1.576189755720	  -0.284209440840
C 	   0.386455184892	  -1.647512696109	   1.502829141075
H 	   1.469841606212	  -1.783280594849	   1.356987201548
H 	   0.217230337429	  -1.553948985026	   2.588792024575
C 	  -0.371622388655	  -2.838862950001	   0.922772695794
H 	  -0.050249715631	  -3.772326813900	   1.406646196032
H 	  -1.457933290061	  -2.747651008731	   1.072568102471
H 	  -0.189196584291	  -2.938170165172	  -0.158170422249
C 	   1.059397270773	   1.171112309632	   1.546645071928
H 	   0.653639425218	   2.168388148399	   1.313769141448
H 	   0.964446289334	   1.031656465559	   2.636713063450
C 	   2.516472209887	   1.083268633515	   1.099810584102
H 	   3.120182785464	   1.852750623155	   1.602007391997
H 	   2.962441873383	   0.106463897404	   1.340167408351
H 	   2.609218946428	   1.236259157964	   0.013732301711
6
LAgCl, L8, Energy    = -950.162038144198 
Ag	   0.000212272642	  -0.000031084589	  -2.488074444720
Cl	   0.000481777147	   0.000236780444	  -4.783565139175
P 	  -0.000045474608	  -0.000021428418	  -0.123416807842
H 	  -1.238275434271	   0.048672405409	   0.555590050512
H 	   0.576743954190	  -1.096527370189	   0.555987165508
H 	   0.661105174894	   1.048071447345	   0.555702075720
15
LAgCl, L9, Energy    = -1068.01809667624 
Ag	   0.000059039307	   0.000202570070	  -2.514698276896
Cl	  -0.000132161381	   0.000939364453	  -4.816469013240
P 	   0.000056607098	  -0.000125181723	  -0.152002707623
C 	  -1.644964744721	   0.219336012569	   0.620171939975
H 	  -2.312948349717	  -0.588637934698	   0.289544057459
H 	  -1.576284151582	   0.209986506651	   1.718537965717
H 	  -2.077519476279	   1.174379720703	   0.289826218309
C 	   0.632544707258	  -1.534401756558	   0.620324253564
H 	   1.666472918070	  -1.708577918911	   0.290172020746
H 	   0.605746192365	  -1.470336594550	   1.718681893743
H 	   0.022146873596	  -2.386706707597	   0.289668274611
C 	   1.012493741290	   1.314869060650	   0.620262564390
H 	   0.969865152139	   1.260184049587	   1.718628412308
H 	   2.055930648109	   1.212003617249	   0.290111867206
H 	   0.646755384448	   2.297286162095	   0.289460009718
30
LAgCl, L10, Energy    = -1351.715455295871 
Ag	   0.038805810248	  -0.732518722591	  -2.096057503429
Cl	  -0.037029498907	  -1.397125037732	  -4.302371314683
P 	   0.023465996207	  -0.118347826927	   0.191373223962
N 	  -1.213094797486	  -0.870197899719	   1.109543478735
C 	  -1.085683924092	  -2.313516042178	   1.259529227230
C 	  -2.572453293235	  -0.484705033745	   0.755264714634
H 	  -1.330798652944	  -2.857484649434	   0.324872139980
H 	  -0.064309379541	  -2.584877326505	   1.552244948579
H 	  -1.774773843810	  -2.658683669852	   2.045344722026
H 	  -2.658868659473	   0.605497118420	   0.674713741285
H 	  -2.898227317962	  -0.926822781739	  -0.208042958326
H 	  -3.263223592280	  -0.830031768171	   1.539528933922
N 	   1.395535843440	  -0.618861228033	   1.035381911770
C 	   1.510400819493	  -0.501836564517	   2.476119140331
C 	   2.658280495577	  -0.787515273884	   0.343802250881
H 	   2.057122281284	   0.410825612659	   2.778320989277
H 	   0.513904430129	  -0.484683699831	   2.936052588524
H 	   2.055083701304	  -1.371181095952	   2.881695567806
H 	   2.496041243039	  -0.903284740085	  -0.737450576898
H 	   3.336322662403	   0.072313457166	   0.498202071845
H 	   3.171589212533	  -1.694639107879	   0.704420645815
N 	  -0.333335900731	   1.509865444705	   0.451342805626
C 	  -0.568616853348	   2.054859419110	   1.774348197483
C 	  -0.001370568214	   2.499116583770	  -0.554934208775
H 	  -1.351491412543	   2.830574036107	   1.727237842665
H 	  -0.917053530983	   1.265861644042	   2.453258902381
H 	   0.340094973727	   2.517036106046	   2.203151981712
H 	   0.128932750985	   2.024118853957	  -1.537910885613
H 	  -0.815369165692	   3.237745822197	  -0.645306587977
H 	   0.929245610860	   3.045039380598	  -0.312277120790
18
LAgCl, L11, Energy    = -1293.445705955031 
Ag	   0.328466321450	   0.486600273640	  -1.485724549460
Cl	   0.886140112348	   1.231197320846	  -3.586715265466
P 	  -0.187612558297	  -0.147015251466	   0.709722169765
O 	  -0.576184587511	  -1.691161922153	   0.880297962950
C 	  -0.996503910067	  -2.252570067218	   2.121140179375
H 	  -2.019506830099	  -1.929197199154	   2.357652615138
H 	  -0.969522332739	  -3.341722771142	   2.001090901956
H 	  -0.319750452162	  -1.953030266490	   2.934952305505
O 	   0.967173026948	   0.140502277233	   1.819908572167
C 	   2.340814015410	  -0.036439964692	   1.508477865164
H 	   2.593449233457	  -1.105025858516	   1.428502984090
H 	   2.608599704687	   0.468523607801	   0.564953626307
H 	   2.918212139211	   0.410147348570	   2.326721460649
O 	  -1.434907104346	   0.567581851472	   1.443312743311
C 	  -1.527566806512	   1.983055309468	   1.490879276229
H 	  -0.780452476854	   2.397903731028	   2.184015896345
H 	  -1.384092373763	   2.426077902628	   0.490602031829
H 	  -2.534474701166	   2.229365658113	   1.847477444178
36
LAgCl, L12, Energy    = -1642.616915706701 
Ag	   0.040848227608	  -0.002215642300	  -2.581435046661
Cl	   0.067733438555	  -0.000668674191	  -4.886069431083
P 	   0.013357859173	  -0.003462714149	  -0.209125245812
C 	   0.598203297029	   1.557530132187	   0.542016354853
C 	   1.369718766243	   1.588715526694	   1.708935453623
C 	   0.230873670679	   2.760339278181	  -0.075122488819
C 	   1.759598386085	   2.810645185164	   2.255651336848
H 	   1.672623652225	   0.656935894472	   2.191918390502
C 	   0.615841026437	   3.978712597293	   0.478082084463
H 	  -0.356182151768	   2.744516393294	  -0.998044789749
C 	   1.381020133743	   4.004694529047	   1.644142975647
H 	   2.365321166482	   2.827844363505	   3.164041142980
H 	   0.325400818368	   4.911134678584	  -0.009892866622
H 	   1.689934950251	   4.960207545657	   2.073303941385
C 	  -1.644135331652	  -0.270354705631	   0.515056476161
C 	  -2.080261687644	   0.398722446246	   1.663908718858
C 	  -2.488840597227	  -1.200375328256	  -0.104765632616
C 	  -3.343393134155	   0.131525905778	   2.190367973501
H 	  -1.435321737808	   1.135228879214	   2.148493194037
C 	  -3.746455756609	  -1.470055041855	   0.428420880284
H 	  -2.163276381145	  -1.713853899531	  -1.014177297021
C 	  -4.174938106328	  -0.803754638272	   1.576625458300
H 	  -3.679341686512	   0.660513514309	   3.084612325472
H 	  -4.398179885628	  -2.196108874601	  -0.061480835339
H 	  -5.164709046912	  -1.009202900075	   1.989825057465
C 	   1.060016043425	  -1.298551279182	   0.546040075689
C 	   2.297214867633	  -1.572818452844	  -0.051237633832
C 	   0.679808114740	  -1.997776341271	   1.696855444965
C 	   3.150124970007	  -2.521849227552	   0.506017900567
H 	   2.594034390211	  -1.044340777119	  -0.961883637427
C 	   1.533480578661	  -2.952830109556	   2.247518060402
H 	  -0.287872800711	  -1.801605035576	   2.164123657735
C 	   2.768555293742	  -3.213035831433	   1.656044690797
H 	   4.112243273269	  -2.729303811040	   0.033584621862
H 	   1.228768405139	  -3.498135116838	   3.143148155290
H 	   3.434093674343	  -3.963315958331	   2.088187923211
33
LAgCl, L13, Energy    = -1303.666388370206 
Ag	   0.053699550249	  -0.855798999413	  -2.101160776030
Cl	   0.229310055096	  -1.537269657826	  -4.299682313773
P 	  -0.093208251474	  -0.205622823242	   0.174586232876
C 	   1.340407199260	  -0.871902146127	   1.149441641359
H 	   1.279346809196	  -0.451423924079	   2.166283494676
C 	   2.657251530531	  -0.425573090495	   0.506990721936
C 	   1.265132789526	  -2.397883772154	   1.241383776775
H 	   2.747041847316	   0.668387304599	   0.444351724941
H 	   3.509003809670	  -0.795029554779	   1.098393321865
H 	   2.755022125740	  -0.827907999577	  -0.514099434677
H 	   2.170268550632	  -2.786782592339	   1.732212710010
H 	   0.400426257290	  -2.741791432342	   1.827159016711
H 	   1.206427853638	  -2.855997240054	   0.240312833399
C 	  -0.142523486711	   1.641220972138	   0.462893753158
H 	  -1.224364719078	   1.858530129435	   0.482572815851
C 	   0.456492966806	   2.401968550340	  -0.724578165526
C 	   0.457737030997	   2.109923767625	   1.791044429020
H 	  -0.055719597801	   2.155459733955	  -1.666178491968
H 	   0.367247217236	   3.487376736375	  -0.562751470331
H 	   1.524407056919	   2.170615437105	  -0.860108203738
H 	   0.259862695332	   3.184454948356	   1.926050544887
H 	   0.037032529986	   1.584072518198	   2.658759691863
H 	   1.549744663800	   1.977027788487	   1.811772142625
C 	  -1.622614684490	  -0.881152077419	   0.988704473477
H 	  -1.496664875632	  -1.970686509245	   0.871284938245
C 	  -2.870452551473	  -0.481269176685	   0.196468745264
C 	  -1.765371266688	  -0.560651814606	   2.475937293574
H 	  -2.791955407878	  -0.767693519762	  -0.863020720457
H 	  -3.757400620712	  -0.979133127587	   0.616823949374
H 	  -3.054416973746	   0.604076112032	   0.241789477369
H 	  -2.619339126995	  -1.112135560638	   2.898772784260
H 	  -0.872581926331	  -0.839544368921	   3.055502047953
H 	  -1.959386790195	   0.510903068620	   2.637787385066
48
LAgCl, L14, Energy    = -1985.844792680941 
Ag	  -0.113821232089	  -2.177334331177	  -1.140909255654
Cl	  -0.005338751458	  -3.833100238218	  -2.761276674276
P 	  -0.222107447986	  -0.473893351093	   0.526818267342
C 	  -1.171917048790	   1.004572215665	   0.031285451477
C 	  -0.918357992259	   1.535453213601	  -1.250845244200
C 	  -2.168028655335	   1.578987484103	   0.819431939688
C 	  -1.670224325981	   2.613670963385	  -1.725576588035
O 	   0.078095719269	   0.947319435142	  -1.935713386252
C 	  -2.915942442441	   2.660267380949	   0.352689089838
H 	  -2.366252241080	   1.169181198113	   1.812429351041
C 	  -2.664167155013	   3.167683005089	  -0.918200179860
H 	  -1.485235331461	   3.026748652629	  -2.717147928049
C 	   0.302337583988	   1.271663317911	  -3.284410889267
H 	  -3.693590174332	   3.098992626771	   0.979984079978
H 	  -3.246205556857	   4.011306825064	  -1.295819334393
H 	   0.648412771765	   2.313008147270	  -3.396470628170
H 	   1.084307783017	   0.590223242557	  -3.638429252786
H 	  -0.606415582997	   1.119030052868	  -3.889532159590
C 	  -0.999172862010	  -1.003212789989	   2.091958291175
C 	  -2.206705566400	  -1.726886299366	   2.001051189082
C 	  -0.427758347427	  -0.789982695729	   3.345473881983
C 	  -2.809520062212	  -2.234476121806	   3.155218721416
O 	  -2.710119399245	  -1.862574206115	   0.761641527503
C 	  -1.029966023153	  -1.288382985967	   4.501077095379
H 	   0.507457449322	  -0.230058944731	   3.417748456606
C 	  -2.214854148194	  -2.010347837426	   4.397325914227
H 	  -3.739510685635	  -2.799674024939	   3.094305516727
C 	  -3.809143684527	  -2.706547955057	   0.528875860293
H 	  -0.570698070554	  -1.115133898730	   5.475633515653
H 	  -2.693137925994	  -2.408954268635	   5.294779589702
H 	  -4.722169225585	  -2.322505266158	   1.014296931876
H 	  -3.957174769942	  -2.725979247535	  -0.556873712238
H 	  -3.608813234702	  -3.731691226750	   0.881389632536
C 	   1.403943198374	   0.184889901848	   1.032193723997
C 	   2.424152512764	  -0.751286726424	   1.301858344418
C 	   1.697693500367	   1.546248905564	   1.092826629996
C 	   3.714976635416	  -0.313563035527	   1.610439347878
O 	   2.053663353261	  -2.042928736294	   1.253696213550
C 	   2.983050437429	   1.987940738062	   1.407802943038
H 	   0.908830291432	   2.272447091705	   0.883661739415
C 	   3.983562917654	   1.054671159835	   1.660867634571
H 	   4.510961247570	  -1.029659408139	   1.814648235372
C 	   3.017241276992	  -3.062631639154	   1.331929269194
H 	   3.199209802180	   3.056667709876	   1.450279790719
H 	   4.994580022985	   1.388738835966	   1.904410255960
H 	   3.498003217293	  -3.087625490030	   2.324390378310
H 	   2.482194081880	  -4.004445428105	   1.165050120743
H 	   3.788245400781	  -2.945944540835	   0.552676042100
45
LAgCl, L15, Energy    = -1760.456177125821 
Ag	   1.514659594035	  -0.946936548217	  -1.921089106904
Cl	   2.623659895881	  -1.522899485662	  -3.864805707854
P 	   0.369551134829	  -0.351436155813	   0.088485226265
C 	  -1.446034848515	  -0.166470516332	  -0.114091711725
C 	  -1.965627861030	   0.582661261000	  -1.194304282226
C 	  -2.317841028599	  -0.775128897464	   0.797349545024
C 	  -3.356073115239	   0.683997628157	  -1.314129618321
C 	  -1.088210037403	   1.269894140057	  -2.208321586585
C 	  -3.698083327141	  -0.665022347443	   0.651834843549
H 	  -1.913896629835	  -1.345348506419	   1.636053769592
C 	  -4.218002158238	   0.067448153124	  -0.410586522846
H 	  -3.770999298483	   1.263379304533	  -2.142607629728
H 	  -0.276833361004	   1.845714912742	  -1.738776267413
H 	  -0.621276640398	   0.539966703745	  -2.890971223413
H 	  -1.676111335870	   1.963399034760	  -2.824040387318
H 	  -4.361333585598	  -1.148866599052	   1.371365900986
H 	  -5.298316399949	   0.164164113683	  -0.537791593121
C 	   0.562796303535	  -1.571032710780	   1.447511405818
C 	   0.384956048074	  -2.949821999154	   1.192312051212
C 	   0.894046571040	  -1.136147327908	   2.736848351100
C 	   0.555050240306	  -3.841798338785	   2.256925470735
C 	   0.021365892341	  -3.488170768158	  -0.167238152286
C 	   1.064623062807	  -2.044765211868	   3.777839102238
H 	   1.021344562312	  -0.069878740392	   2.933386986936
C 	   0.895297954615	  -3.404092216438	   3.534462020150
H 	   0.416835668584	  -4.910304160099	   2.074137400466
H 	  -0.806270711995	  -2.931026444066	  -0.630896323797
H 	   0.879858287851	  -3.437375227209	  -0.858075786087
H 	  -0.282004120568	  -4.541301100207	  -0.099684639543
H 	   1.325410732006	  -1.686476901138	   4.775516317111
H 	   1.024496202561	  -4.129287683111	   4.340698804848
C 	   0.920925702019	   1.242770797762	   0.813839809630
C 	   2.300366702685	   1.515756353596	   0.956837045663
C 	  -0.025043736352	   2.192791057926	   1.218498439098
C 	   2.672245269031	   2.749354196421	   1.502560540208
C 	   3.372482742303	   0.538194362943	   0.550122228258
C 	   0.371100821023	   3.416104453288	   1.752304595565
H 	  -1.089904604830	   1.975159177333	   1.115865152949
C 	   1.726950628082	   3.694606810859	   1.892897744081
H 	   3.735494857133	   2.971683000137	   1.622202487039
H 	   3.169125008852	  -0.480820895727	   0.911484037105
H 	   3.467199206929	   0.485015152953	  -0.547638693674
H 	   4.348927201647	   0.844802917470	   0.947917259376
H 	  -0.381326370879	   4.144870320203	   2.059682298702
H 	   2.053708811472	   4.649125708758	   2.310912879124
45
LAgCl, L16, Energy    = -2652.712861998184 
Ag	  -0.206612056442	   0.296644679530	  -2.619804890117
Cl	  -0.329634063856	   0.473152715986	  -4.908427809297
P 	  -0.078624962381	   0.112525377736	  -0.262155339489
C 	   1.424249125550	  -0.736812876307	   0.344088886172
C 	   2.631354889559	  -0.484277671390	  -0.320095040431
C 	   1.409905167429	  -1.601617006283	   1.442602505615
C 	   3.811406611188	  -1.071767354033	   0.121280856016
H 	   2.651095409792	   0.170803410935	  -1.195428727752
C 	   2.590671106924	  -2.196293216295	   1.880979468126
H 	   0.474594476658	  -1.822129566973	   1.961174321774
C 	   3.790258467847	  -1.926137924665	   1.225008795036
H 	   4.748285633910	  -0.876353770897	  -0.402780722769
H 	   2.575302880865	  -2.876649483373	   2.733464005525
C 	   5.083765852503	  -2.523200616569	   1.728652591315
F 	   5.910569853197	  -2.818116043840	   0.724074383959
F 	   5.723770834242	  -1.665527152383	   2.530488573358
F 	   4.874836112286	  -3.640626848175	   2.427106680026
C 	  -0.079958758385	   1.716647613504	   0.617593938179
C 	   0.707010539487	   1.958404245800	   1.747923321783
C 	  -0.921476368987	   2.725985492498	   0.133472600663
C 	   0.643198399805	   3.190142933338	   2.394378211194
H 	   1.381019257949	   1.187941014939	   2.127852869030
C 	  -0.991998397911	   3.953152903671	   0.783407740169
H 	  -1.522923534209	   2.557478058084	  -0.764111567213
C 	  -0.210497670486	   4.183218925910	   1.916452119000
H 	   1.265057381438	   3.379588632428	   3.270530750218
H 	  -1.645066015566	   4.738305904732	   0.399653398622
C 	  -0.323201177934	   5.498672777111	   2.651362428049
F 	  -0.609488051514	   6.502706104458	   1.821324366220
F 	  -1.295810691848	   5.450645907658	   3.567958041248
F 	   0.808103688886	   5.805582965475	   3.289160985777
C 	  -1.459557866238	  -0.820591118766	   0.492748350093
C 	  -2.052581637782	  -0.446900401684	   1.701955443861
C 	  -1.915364211512	  -1.964381531010	  -0.175880790076
C 	  -3.080531415135	  -1.215301665940	   2.244508513383
H 	  -1.719890360666	   0.450593072207	   2.227467316995
C 	  -2.935219619412	  -2.735433230891	   0.368479588676
H 	  -1.475654659007	  -2.253063756907	  -1.134575488812
C 	  -3.515889204723	  -2.360865270580	   1.581954270667